LAMMPS (2 Aug 2023)
OMP_NUM_THREADS environment is not set. Defaulting to 1 thread. (src/comm.cpp:98)
  using 1 OpenMP thread(s) per MPI task
units real
atom_style full

# Set random number seed (if needed)
#variable seed_value equal 12345
#random seed ${seed_value}







#molecule water spce.mol

# Read the equilibrated configuration from the equilibration stage
read_data equilibrated_configuration.data
Reading data file ...
  orthogonal box = (-0.07381525 -0.07381525 -0.07381525) to (31.073815 31.073815 31.073815)
  1 by 2 by 5 MPI processor grid
  reading atoms ...
  3057 atoms
  reading velocities ...
  3057 velocities
  scanning bonds ...
  2 = max bonds/atom
  scanning angles ...
  1 = max angles/atom
  reading bonds ...
  2038 bonds
  reading angles ...
  1019 angles
Finding 1-2 1-3 1-4 neighbors ...
  special bond factors lj:    0        0        0       
  special bond factors coul:  0        0        0       
     2 = max # of 1-2 neighbors
     1 = max # of 1-3 neighbors
     1 = max # of 1-4 neighbors
     2 = max # of special neighbors
  special bonds CPU = 0.004 seconds
  read_data CPU = 0.048 seconds


#pair_style lj/cut/coul/cut 10.0
bond_style zero
bond_coeff 1 1.0

angle_style zero
angle_coeff 1 109.47


timestep 1.0
fix rigid all shake 0.0001 10 10000 b 1 a 1
Finding SHAKE clusters ...
       0 = # of size 2 clusters
       0 = # of size 3 clusters
       0 = # of size 4 clusters
    1019 = # of frozen angles
  find clusters CPU = 0.001 seconds
#minimize 0.0 0.0 1000 10000

# Set seed for velocity creation
velocity all create 300.0 ${seed_value}
velocity all create 300.0 12345

# Production phase
fix production_nvt all nvt temp 300.0 300.0 100.0

thermo_style custom step temp press etotal density pe ke
thermo 100

# Dump stage
dump mydump all custom 100 NVT_water_T_300.xyz id type x y z
dump_modify mydump sort id

run 2000000
WARNING: No pairwise cutoff or binsize set. Atom sorting therefore disabled. (src/atom.cpp:2366)
SHAKE stats (type/ave/delta/count) on step 0
Bond:   1   1         1.24265e-06     2038
Angle:  1   109.47    0.000137107     1019
Per MPI rank memory allocation (min/avg/max) = 6.749 | 6.751 | 6.753 Mbytes
   Step          Temp          Press          TotEng        Density         PotEng         KinEng    
         0   300            1647.163       1821.573       1.0087699      0              1821.573     
       100   224.58432      1024.588       1363.6558      1.0087699      0              1363.6558    
       200   262.87829      1199.2554      1596.1733      1.0087699      0              1596.1733    
       300   298.22769      1360.4824      1810.8117      1.0087699      0              1810.8117    
       400   316.14878      1442.2162      1919.627       1.0087699      0              1919.627     
       500   304.84753      1390.6722      1851.0068      1.0087699      0              1851.0068    
       600   289.16231      1319.1335      1755.7676      1.0087699      0              1755.7676    
       700   292.80388      1335.743       1777.8788      1.0087699      0              1777.8788    
       800   307.31992      1401.9494      1866.0189      1.0087699      0              1866.0189    
       900   308.34382      1406.6189      1872.236       1.0087699      0              1872.236     
      1000   295.73613      1349.1164      1795.6832      1.0087699      0              1795.6832    
      1100   291.45786      1329.6036      1769.7059      1.0087699      0              1769.7059    
      1200   301.32847      1374.6232      1829.6393      1.0087699      0              1829.6393    
      1300   308.30909      1406.4606      1872.025       1.0087699      0              1872.025     
      1400   300.97709      1373.02        1827.5058      1.0087699      0              1827.5058    
      1500   292.74678      1335.4822      1777.5321      1.0087699      0              1777.5321    
      1600   296.88927      1354.3762      1802.6849      1.0087699      0              1802.6849    
      1700   306.03766      1396.1011      1858.2332      1.0087699      0              1858.2332    
      1800   304.57808      1389.4439      1849.3707      1.0087699      0              1849.3707    
      1900   295.41072      1347.6323      1793.7073      1.0087699      0              1793.7073    
      2000   294.45797      1343.2871      1787.9223      1.0087699      0              1787.9223    
      2100   303.37836      1383.9725      1842.0861      1.0087699      0              1842.0861    
      2200   306.18784      1396.786       1859.1451      1.0087699      0              1859.1451    
      2300   296.77617      1353.8599      1801.9982      1.0087699      0              1801.9982    
      2400   292.50946      1334.4         1776.0912      1.0087699      0              1776.0912    
      2500   301.38432      1374.8781      1829.9785      1.0087699      0              1829.9785    
      2600   305.16634      1392.1267      1852.9426      1.0087699      0              1852.9426    
      2700   301.23358      1374.1899      1829.0632      1.0087699      0              1829.0632    
      2800   296.49983      1352.5998      1800.3203      1.0087699      0              1800.3203    
      2900   297.46727      1357.012       1806.1945      1.0087699      0              1806.1945    
      3000   307.29214      1401.8224      1865.8502      1.0087699      0              1865.8502    
      3100   308.03836      1405.2264      1870.3812      1.0087699      0              1870.3812    
      3200   293.41964      1338.5504      1781.6177      1.0087699      0              1781.6177    
      3300   295.24648      1346.8837      1792.7101      1.0087699      0              1792.7101    
      3400   302.46797      1379.8202      1836.5583      1.0087699      0              1836.5583    
      3500   304.03817      1386.9816      1846.0924      1.0087699      0              1846.0924    
      3600   294.87548      1345.192       1790.4574      1.0087699      0              1790.4574    
      3700   286.63496      1307.6065      1740.4217      1.0087699      0              1740.4217    
      3800   299.14363      1364.66        1816.3732      1.0087699      0              1816.3732    
      3900   302.15235      1378.3805      1834.6419      1.0087699      0              1834.6419    
      4000   299.92584      1368.2256      1821.1227      1.0087699      0              1821.1227    
      4100   296.71675      1353.5893      1801.6374      1.0087699      0              1801.6374    
      4200   298.5987       1362.1724      1813.0645      1.0087699      0              1813.0645    
      4300   307.56794      1403.0803      1867.5249      1.0087699      0              1867.5249    
      4400   305.87151      1395.3436      1857.2243      1.0087699      0              1857.2243    
      4500   292.88154      1336.0964      1778.3503      1.0087699      0              1778.3503    
      4600   295.40743      1347.6178      1793.6873      1.0087699      0              1793.6873    
      4700   301.88785      1377.1744      1833.0359      1.0087699      0              1833.0359    
      4800   302.80601      1381.3617      1838.6108      1.0087699      0              1838.6108    
      4900   297.94432      1359.1886      1809.0911      1.0087699      0              1809.0911    
      5000   285.22752      1301.1872      1731.8758      1.0087699      0              1731.8758    
      5100   289.46122      1320.4977      1757.5825      1.0087699      0              1757.5825    
      5200   301.12963      1373.7163      1828.432       1.0087699      0              1828.432     
      5300   302.76495      1381.1746      1838.3615      1.0087699      0              1838.3615    
      5400   298.92614      1363.6662      1815.0527      1.0087699      0              1815.0527    
      5500   294.4308       1343.1632      1787.7573      1.0087699      0              1787.7573    
      5600   299.55883      1366.551       1818.8942      1.0087699      0              1818.8942    
      5700   309.75688      1413.064       1880.8159      1.0087699      0              1880.8159    
      5800   302.56936      1380.282       1837.1739      1.0087699      0              1837.1739    
      5900   295.74701      1349.1662      1795.7493      1.0087699      0              1795.7493    
      6000   298.28232      1360.7298      1811.1434      1.0087699      0              1811.1434    
      6100   302.33607      1379.2184      1835.7574      1.0087699      0              1835.7574    
      6200   302.60973      1380.4669      1837.419       1.0087699      0              1837.419     
      6300   292.29313      1333.413       1774.7776      1.0087699      0              1774.7776    
      6400   290.69757      1326.1359      1765.0895      1.0087699      0              1765.0895    
      6500   303.01165      1382.3005      1839.8595      1.0087699      0              1839.8595    
      6600   303.88621      1386.2883      1845.1697      1.0087699      0              1845.1697    
      6700   298.55147      1361.9571      1812.7777      1.0087699      0              1812.7777    
      6800   295.36984      1347.4461      1793.4591      1.0087699      0              1793.4591    
      6900   304.07897      1387.1675      1846.3401      1.0087699      0              1846.3401    
      7000   311.29411      1420.0749      1890.1498      1.0087699      0              1890.1498    
      7100   299.82889      1367.7824      1820.5341      1.0087699      0              1820.5341    
      7200   295.8723       1349.7376      1796.51        1.0087699      0              1796.51      
      7300   299.8544       1367.8998      1820.6889      1.0087699      0              1820.6889    
      7400   305.15681      1392.0833      1852.8847      1.0087699      0              1852.8847    
      7500   303.32709      1383.739       1841.7748      1.0087699      0              1841.7748    
      7600   291.63905      1330.4299      1770.8061      1.0087699      0              1770.8061    
      7700   295.04608      1345.9696      1791.4933      1.0087699      0              1791.4933    
      7800   305.09513      1391.8025      1852.5102      1.0087699      0              1852.5102    
      7900   303.5844       1384.9118      1843.3372      1.0087699      0              1843.3372    
      8000   297.53703      1357.3301      1806.6181      1.0087699      0              1806.6181    
      8100   297.05198      1355.1184      1803.6729      1.0087699      0              1803.6729    
      8200   299.56234      1366.5679      1818.9156      1.0087699      0              1818.9156    
      8300   300.28643      1369.8702      1823.3122      1.0087699      0              1823.3122    
      8400   300.28125      1369.8466      1823.2807      1.0087699      0              1823.2807    
      8500   299.44916      1366.0516      1818.2284      1.0087699      0              1818.2284    
      8600   298.30052      1360.8127      1811.2539      1.0087699      0              1811.2539    
      8700   299.77807      1367.5515      1820.2255      1.0087699      0              1820.2255    
      8800   303.73939      1385.6186      1844.2783      1.0087699      0              1844.2783    
      8900   302.64363      1380.6214      1837.6249      1.0087699      0              1837.6249    
      9000   293.48187      1338.8351      1781.9955      1.0087699      0              1781.9955    
      9100   293.3183       1338.0886      1781.0023      1.0087699      0              1781.0023    
      9200   307.02208      1400.5915      1864.2104      1.0087699      0              1864.2104    
      9300   305.60338      1394.1198      1855.5962      1.0087699      0              1855.5962    
      9400   298.91126      1363.5979      1814.9623      1.0087699      0              1814.9623    
      9500   296.93398      1354.58        1802.9565      1.0087699      0              1802.9565    
      9600   301.55535      1375.6569      1831.0169      1.0087699      0              1831.0169    
      9700   314.37354      1434.1196      1908.8478      1.0087699      0              1908.8478    
      9800   306.74509      1399.3264      1862.5286      1.0087699      0              1862.5286    
      9900   296.8463       1354.1799      1802.4241      1.0087699      0              1802.4241    
SHAKE stats (type/ave/delta/count) on step 10000
Bond:   1   1         2.43291e-07     2038
Angle:  1   109.47    2.58321e-05     1019
     10000   298.36034      1361.0855      1811.6172      1.0087699      0              1811.6172    
     10100   303.71506      1385.5077      1844.1305      1.0087699      0              1844.1305    
     10200   304.31032      1388.2231      1847.7449      1.0087699      0              1847.7449    
     10300   293.14698      1337.3074      1779.9621      1.0087699      0              1779.9621    
     10400   291.6753       1330.5953      1771.0262      1.0087699      0              1771.0262    
     10500   302.98134      1382.1623      1839.6755      1.0087699      0              1839.6755    
     10600   303.46835      1384.3825      1842.6325      1.0087699      0              1842.6325    
     10700   299.03444      1364.1599      1815.7102      1.0087699      0              1815.7102    
     10800   296.21225      1351.2882      1798.5741      1.0087699      0              1798.5741    
     10900   301.97988      1377.5932      1833.5947      1.0087699      0              1833.5947    
     11000   311.4548       1420.8079      1891.1255      1.0087699      0              1891.1255    
     11100   301.2181       1374.1184      1828.9692      1.0087699      0              1828.9692    
     11200   295.5356       1348.202       1794.4656      1.0087699      0              1794.4656    
     11300   299.1385       1364.6348      1816.3421      1.0087699      0              1816.3421    
     11400   303.8703       1386.2159      1845.0732      1.0087699      0              1845.0732    
     11500   301.96762      1377.5389      1833.5203      1.0087699      0              1833.5203    
     11600   289.45833      1320.4835      1757.5649      1.0087699      0              1757.5649    
     11700   294.34576      1342.7756      1787.241       1.0087699      0              1787.241     
     11800   303.84713      1386.1105      1844.9325      1.0087699      0              1844.9325    
     11900   302.51026      1380.0128      1836.8151      1.0087699      0              1836.8151    
     12000   297.25665      1356.0518      1804.9156      1.0087699      0              1804.9156    
     12100   295.14646      1346.427       1792.1028      1.0087699      0              1792.1028    
     12200   305.44738      1393.4091      1854.649       1.0087699      0              1854.649     
     12300   308.8848       1409.0864      1875.5207      1.0087699      0              1875.5207    
     12400   297.49698      1357.147       1806.3749      1.0087699      0              1806.3749    
     12500   294.99226      1345.724       1791.1664      1.0087699      0              1791.1664    
     12600   300.67662      1371.65        1825.6814      1.0087699      0              1825.6814    
     12700   304.22474      1387.8324      1847.2252      1.0087699      0              1847.2252    
     12800   296.28928      1351.6418      1799.0419      1.0087699      0              1799.0419    
     12900   285.14047      1300.7903      1731.3473      1.0087699      0              1731.3473    
     13000   296.73547      1353.6759      1801.7511      1.0087699      0              1801.7511    
     13100   303.44322      1384.2681      1842.48        1.0087699      0              1842.48      
     13200   302.17967      1378.5051      1834.8078      1.0087699      0              1834.8078    
     13300   294.8009       1344.8513      1790.0045      1.0087699      0              1790.0045    
     13400   292.23141      1333.1315      1774.4028      1.0087699      0              1774.4028    
     13500   306.71315      1399.1829      1862.3347      1.0087699      0              1862.3347    
     13600   307.00343      1400.5052      1864.0972      1.0087699      0              1864.0972    
     13700   297.7202       1358.1654      1807.7303      1.0087699      0              1807.7303    
     13800   296.17379      1351.1128      1798.3406      1.0087699      0              1798.3406    
     13900   300.79174      1372.175       1826.3804      1.0087699      0              1826.3804    
     14000   304.21098      1387.7696      1847.1417      1.0087699      0              1847.1417    
     14100   298.13882      1360.0753      1810.2721      1.0087699      0              1810.2721    
     14200   290.61466      1325.7578      1764.5861      1.0087699      0              1764.5861    
     14300   299.30511      1365.3952      1817.3537      1.0087699      0              1817.3537    
     14400   306.31415      1397.3621      1859.912       1.0087699      0              1859.912     
     14500   300.9451       1372.8743      1827.3116      1.0087699      0              1827.3116    
     14600   293.24139      1337.7382      1780.5354      1.0087699      0              1780.5354    
     14700   298.75874      1362.9008      1814.0362      1.0087699      0              1814.0362    
     14800   313.21329      1428.8279      1901.803       1.0087699      0              1901.803     
     14900   304.10304      1387.2767      1846.4863      1.0087699      0              1846.4863    
     15000   296.11532      1350.846       1797.9856      1.0087699      0              1797.9856    
     15100   297.00499      1354.9038      1803.3876      1.0087699      0              1803.3876    
     15200   305.54624      1393.8593      1855.2493      1.0087699      0              1855.2493    
     15300   308.42462      1406.9882      1872.7266      1.0087699      0              1872.7266    
     15400   292.31497      1333.5118      1774.9102      1.0087699      0              1774.9102    
     15500   293.51301      1338.9774      1782.1846      1.0087699      0              1782.1846    
     15600   302.89107      1381.7501      1839.1274      1.0087699      0              1839.1274    
     15700   304.13281      1387.4131      1846.6671      1.0087699      0              1846.6671    
     15800   297.41461      1356.7723      1805.8748      1.0087699      0              1805.8748    
     15900   289.45634      1320.4756      1757.5529      1.0087699      0              1757.5529    
     16000   291.16157      1328.2521      1767.9069      1.0087699      0              1767.9069    
     16100   305.19175      1392.2434      1853.0969      1.0087699      0              1853.0969    
     16200   304.7994       1390.4534      1850.7145      1.0087699      0              1850.7145    
     16300   295.74801      1349.1706      1795.7553      1.0087699      0              1795.7553    
     16400   294.46863      1343.3355      1787.987       1.0087699      0              1787.987     
     16500   306.18481      1396.7724      1859.1266      1.0087699      0              1859.1266    
     16600   309.23667      1410.6907      1877.6573      1.0087699      0              1877.6573    
     16700   302.66592      1380.7223      1837.7603      1.0087699      0              1837.7603    
     16800   298.72424      1362.7451      1813.8267      1.0087699      0              1813.8267    
     16900   297.41414      1356.7698      1805.8719      1.0087699      0              1805.8719    
     17000   301.98272      1377.6066      1833.6119      1.0087699      0              1833.6119    
     17100   308.98003      1409.5206      1876.0989      1.0087699      0              1876.0989    
     17200   300.77462      1372.0967      1826.2765      1.0087699      0              1826.2765    
     17300   292.13778      1332.7047      1773.8343      1.0087699      0              1773.8343    
     17400   298.12571      1360.0158      1810.1925      1.0087699      0              1810.1925    
     17500   303.63258      1385.1317      1843.6297      1.0087699      0              1843.6297    
     17600   301.76888      1376.6313      1832.3135      1.0087699      0              1832.3135    
     17700   298.55843      1361.9889      1812.8199      1.0087699      0              1812.8199    
     17800   298.73014      1362.7723      1813.8625      1.0087699      0              1813.8625    
     17900   299.88774      1368.0519      1820.8914      1.0087699      0              1820.8914    
     18000   300.79374      1372.184       1826.3925      1.0087699      0              1826.3925    
     18100   300.30565      1369.9581      1823.4289      1.0087699      0              1823.4289    
     18200   296.75318      1353.7555      1801.8586      1.0087699      0              1801.8586    
     18300   296.02319      1350.4259      1797.4262      1.0087699      0              1797.4262    
     18400   303.8593       1386.1659      1845.0063      1.0087699      0              1845.0063    
     18500   307.17076      1401.2691      1865.1132      1.0087699      0              1865.1132    
     18600   295.18223      1346.5896      1792.32        1.0087699      0              1792.32      
     18700   292.07676      1332.4268      1773.4638      1.0087699      0              1773.4638    
     18800   298.63064      1362.3189      1813.2584      1.0087699      0              1813.2584    
     18900   301.9693       1377.5457      1833.5304      1.0087699      0              1833.5304    
     19000   300.95723      1372.9298      1827.3853      1.0087699      0              1827.3853    
     19100   295.0199       1345.8508      1791.3343      1.0087699      0              1791.3343    
     19200   287.78771      1312.8641      1747.4211      1.0087699      0              1747.4211    
     19300   299.69487      1367.1736      1819.7203      1.0087699      0              1819.7203    
     19400   305.45002      1393.4208      1854.6651      1.0087699      0              1854.6651    
     19500   300.08813      1368.9657      1822.1081      1.0087699      0              1822.1081    
     19600   294.31551      1342.6374      1787.0573      1.0087699      0              1787.0573    
     19700   299.86749      1367.9583      1820.7684      1.0087699      0              1820.7684    
     19800   312.37363      1424.9985      1896.7046      1.0087699      0              1896.7046    
     19900   303.68725      1385.38        1843.9616      1.0087699      0              1843.9616    
SHAKE stats (type/ave/delta/count) on step 20000
Bond:   1   1         8.45105e-08     2038
Angle:  1   109.47    9.86086e-06     1019
     20000   297.4702       1357.0256      1806.2123      1.0087699      0              1806.2123    
     20100   298.22251      1360.4568      1810.7802      1.0087699      0              1810.7802    
     20200   303.66469      1385.2778      1843.8247      1.0087699      0              1843.8247    
     20300   310.19543      1415.0639      1883.4788      1.0087699      0              1883.4788    
     20400   301.25062      1374.2672      1829.1667      1.0087699      0              1829.1667    
     20500   292.82851      1335.8552      1778.0284      1.0087699      0              1778.0284    
     20600   298.70959      1362.6786      1813.7378      1.0087699      0              1813.7378    
     20700   305.65485      1394.3551      1855.9087      1.0087699      0              1855.9087    
     20800   301.90008      1377.23        1833.1102      1.0087699      0              1833.1102    
     20900   291.21622      1328.5022      1768.2387      1.0087699      0              1768.2387    
     21000   281.15458      1282.6109      1707.1453      1.0087699      0              1707.1453    
     21100   293.23931      1337.7313      1780.5227      1.0087699      0              1780.5227    
     21200   303.93604      1386.5161      1845.4723      1.0087699      0              1845.4723    
     21300   304.04266      1387.002       1846.1197      1.0087699      0              1846.1197    
     21400   296.30592      1351.7153      1799.1429      1.0087699      0              1799.1429    
     21500   294.14776      1341.8721      1786.0387      1.0087699      0              1786.0387    
     21600   304.78924      1390.4074      1850.6528      1.0087699      0              1850.6528    
     21700   308.5404       1407.5155      1873.4296      1.0087699      0              1873.4296    
     21800   300.30715      1369.9639      1823.438       1.0087699      0              1823.438     
     21900   298.54152      1361.9118      1812.7172      1.0087699      0              1812.7172    
     22000   300.01069      1368.6127      1821.6379      1.0087699      0              1821.6379    
     22100   302.37229      1379.3835      1835.9774      1.0087699      0              1835.9774    
     22200   301.97185      1377.5575      1833.5459      1.0087699      0              1833.5459    
     22300   295.12125      1346.3124      1791.9497      1.0087699      0              1791.9497    
     22400   293.85508      1340.5371      1784.2616      1.0087699      0              1784.2616    
     22500   305.24471      1392.485       1853.4184      1.0087699      0              1853.4184    
     22600   306.812        1399.6324      1862.9348      1.0087699      0              1862.9348    
     22700   298.88877      1363.495       1814.8258      1.0087699      0              1814.8258    
     22800   297.61584      1357.69        1807.0966      1.0087699      0              1807.0966    
     22900   300.00261      1368.5758      1821.5889      1.0087699      0              1821.5889    
     23000   302.22542      1378.7137      1835.0856      1.0087699      0              1835.0856    
     23100   300.55941      1371.1157      1824.9697      1.0087699      0              1824.9697    
     23200   292.75286      1335.5101      1777.569       1.0087699      0              1777.569     
     23300   295.31823      1347.2105      1793.1458      1.0087699      0              1793.1458    
     23400   306.25087      1397.0738      1859.5277      1.0087699      0              1859.5277    
     23500   304.29404      1388.1483      1847.646       1.0087699      0              1847.646     
     23600   297.1401       1355.5197      1804.2079      1.0087699      0              1804.2079    
     23700   297.14979      1355.5646      1804.2668      1.0087699      0              1804.2668    
     23800   299.71489      1367.2636      1819.8418      1.0087699      0              1819.8418    
     23900   301.35561      1374.7467      1829.8042      1.0087699      0              1829.8042    
     24000   300.32536      1370.048       1823.5486      1.0087699      0              1823.5486    
     24100   293.269        1337.8644      1780.703       1.0087699      0              1780.703     
     24200   292.86847      1336.0373      1778.271       1.0087699      0              1778.271     
     24300   304.85526      1390.7088      1851.0537      1.0087699      0              1851.0537    
     24400   305.2696       1392.5978      1853.5695      1.0087699      0              1853.5695    
     24500   297.61085      1357.6668      1807.0663      1.0087699      0              1807.0663    
     24600   295.931        1350.0056      1796.8664      1.0087699      0              1796.8664    
     24700   299.24851      1365.1367      1817.01        1.0087699      0              1817.01      
     24800   300.40197      1370.3972      1824.0138      1.0087699      0              1824.0138    
     24900   300.35209      1370.1697      1823.7109      1.0087699      0              1823.7109    
     25000   299.25592      1365.1703      1817.055       1.0087699      0              1817.055     
     25100   297.54368      1357.3608      1806.6585      1.0087699      0              1806.6585    
     25200   299.32997      1365.5078      1817.5047      1.0087699      0              1817.5047    
     25300   304.66673      1389.8482      1849.909       1.0087699      0              1849.909     
     25400   303.47521      1384.4142      1842.6742      1.0087699      0              1842.6742    
     25500   292.74465      1335.4724      1777.5192      1.0087699      0              1777.5192    
     25600   293.59732      1339.3617      1782.6965      1.0087699      0              1782.6965    
     25700   305.65955      1394.3771      1855.9373      1.0087699      0              1855.9373    
     25800   304.44219      1388.8238      1848.5456      1.0087699      0              1848.5456    
     25900   298.7541       1362.8813      1814.008       1.0087699      0              1814.008     
     26000   296.17319      1351.1101      1798.337       1.0087699      0              1798.337     
     26100   302.60826      1380.4591      1837.4102      1.0087699      0              1837.4102    
     26200   312.5563       1425.8316      1897.8138      1.0087699      0              1897.8138    
     26300   301.12404      1373.6889      1828.3981      1.0087699      0              1828.3981    
     26400   296.20675      1351.2632      1798.5408      1.0087699      0              1798.5408    
     26500   299.7812       1367.566       1820.2445      1.0087699      0              1820.2445    
     26600   304.40577      1388.658       1848.3245      1.0087699      0              1848.3245    
     26700   301.64888      1376.0849      1831.5848      1.0087699      0              1831.5848    
     26800   290.02554      1323.0706      1761.009       1.0087699      0              1761.009     
     26900   294.82854      1344.9775      1790.1724      1.0087699      0              1790.1724    
     27000   303.96116      1386.6305      1845.6248      1.0087699      0              1845.6248    
     27100   302.18194      1378.5153      1834.8216      1.0087699      0              1834.8216    
     27200   297.64054      1357.8025      1807.2466      1.0087699      0              1807.2466    
     27300   296.45003      1352.3725      1800.0179      1.0087699      0              1800.0179    
     27400   306.6587       1398.9337      1862.0041      1.0087699      0              1862.0041    
     27500   309.53208      1412.0386      1879.451       1.0087699      0              1879.451     
     27600   297.35674      1356.5073      1805.5234      1.0087699      0              1805.5234    
     27700   295.84577      1349.6169      1796.3489      1.0087699      0              1796.3489    
     27800   300.92647      1372.7896      1827.1985      1.0087699      0              1827.1985    
     27900   304.29278      1388.1427      1847.6384      1.0087699      0              1847.6384    
     28000   296.42612      1352.2641      1799.8727      1.0087699      0              1799.8727    
     28100   288.18094      1314.6578      1749.8088      1.0087699      0              1749.8088    
     28200   299.12415      1364.5703      1816.2549      1.0087699      0              1816.2549    
     28300   304.1145       1387.3297      1846.5559      1.0087699      0              1846.5559    
     28400   300.52501      1370.9584      1824.7608      1.0087699      0              1824.7608    
     28500   294.6072       1343.968       1788.8284      1.0087699      0              1788.8284    
     28600   294.68985      1344.344       1789.3302      1.0087699      0              1789.3302    
     28700   307.40661      1402.345       1866.5453      1.0087699      0              1866.5453    
     28800   306.04972      1396.1559      1858.3064      1.0087699      0              1858.3064    
     28900   295.66838      1348.8073      1795.2718      1.0087699      0              1795.2718    
     29000   295.79429      1349.3821      1796.0363      1.0087699      0              1796.0363    
     29100   301.5337       1375.5591      1830.8855      1.0087699      0              1830.8855    
     29200   302.72762      1381.0042      1838.1349      1.0087699      0              1838.1349    
     29300   300.79738      1372.2005      1826.4147      1.0087699      0              1826.4147    
     29400   299.46983      1366.1458      1818.3539      1.0087699      0              1818.3539    
     29500   299.25495      1365.1657      1817.0492      1.0087699      0              1817.0492    
     29600   301.61285      1375.9196      1831.3661      1.0087699      0              1831.3661    
     29700   305.56315      1393.9367      1855.352       1.0087699      0              1855.352     
     29800   300.47724      1370.7406      1824.4708      1.0087699      0              1824.4708    
     29900   292.63203      1334.959       1776.8354      1.0087699      0              1776.8354    
SHAKE stats (type/ave/delta/count) on step 30000
Bond:   1   1         7.12758e-07     2038
Angle:  1   109.47    7.4356e-05      1019
     30000   298.00541      1359.4665      1809.4621      1.0087699      0              1809.4621    
     30100   308.59047      1407.7442      1873.7336      1.0087699      0              1873.7336    
     30200   304.33464      1388.333       1847.8926      1.0087699      0              1847.8926    
     30300   299.31813      1365.4537      1817.4328      1.0087699      0              1817.4328    
     30400   297.77953      1358.4364      1808.0905      1.0087699      0              1808.0905    
     30500   301.26244      1374.3212      1829.2384      1.0087699      0              1829.2384    
     30600   311.02676      1418.8553      1888.5265      1.0087699      0              1888.5265    
     30700   305.30713      1392.7689      1853.7974      1.0087699      0              1853.7974    
     30800   294.4549       1343.2727      1787.9037      1.0087699      0              1787.9037    
     30900   297.62471      1357.7305      1807.1505      1.0087699      0              1807.1505    
     31000   304.33053      1388.3151      1847.8676      1.0087699      0              1847.8676    
     31100   303.47823      1384.4284      1842.6925      1.0087699      0              1842.6925    
     31200   288.61982      1316.6587      1752.4736      1.0087699      0              1752.4736    
     31300   292.0353       1332.2381      1773.2121      1.0087699      0              1773.2121    
     31400   300.80366      1372.2297      1826.4528      1.0087699      0              1826.4528    
     31500   302.53438      1380.1229      1836.9616      1.0087699      0              1836.9616    
     31600   299.10534      1364.4836      1816.1407      1.0087699      0              1816.1407    
     31700   292.26287      1333.2757      1774.5939      1.0087699      0              1774.5939    
     31800   292.83563      1335.8872      1778.0716      1.0087699      0              1778.0716    
     31900   306.23269      1396.991       1859.4174      1.0087699      0              1859.4174    
     32000   304.85902      1390.7252      1851.0766      1.0087699      0              1851.0766    
     32100   296.2436       1351.4309      1798.7645      1.0087699      0              1798.7645    
     32200   295.75187      1349.1885      1795.7788      1.0087699      0              1795.7788    
     32300   302.44799      1379.729       1836.437       1.0087699      0              1836.437     
     32400   307.65119      1403.4592      1868.0303      1.0087699      0              1868.0303    
     32500   305.91267      1395.5309      1857.4742      1.0087699      0              1857.4742    
     32600   294.6962       1344.3733      1789.3688      1.0087699      0              1789.3688    
     32700   294.22631      1342.2305      1786.5157      1.0087699      0              1786.5157    
     32800   303.98606      1386.7442      1845.776       1.0087699      0              1845.776     
     32900   305.86431      1395.3104      1857.1806      1.0087699      0              1857.1806    
     33000   295.86907      1349.7228      1796.4904      1.0087699      0              1796.4904    
     33100   292.33232      1333.5921      1775.0155      1.0087699      0              1775.0155    
     33200   299.90192      1368.1175      1820.9775      1.0087699      0              1820.9775    
     33300   301.2786       1374.3953      1829.3365      1.0087699      0              1829.3365    
     33400   299.74998      1367.4236      1820.0549      1.0087699      0              1820.0549    
     33500   298.03111      1359.5839      1809.6181      1.0087699      0              1809.6181    
     33600   299.59835      1366.7317      1819.1342      1.0087699      0              1819.1342    
     33700   305.50593      1393.6757      1855.0045      1.0087699      0              1855.0045    
     33800   304.83934      1390.636       1850.957       1.0087699      0              1850.957     
     33900   293.14442      1337.2957      1779.9465      1.0087699      0              1779.9465    
     34000   294.01097      1341.2484      1785.2082      1.0087699      0              1785.2082    
     34100   303.07322      1382.5811      1840.2334      1.0087699      0              1840.2334    
     34200   303.15884      1382.9708      1840.7532      1.0087699      0              1840.7532    
     34300   299.67109      1367.0636      1819.5759      1.0087699      0              1819.5759    
     34400   297.5039       1357.1794      1806.4169      1.0087699      0              1806.4169    
     34500   300.9247       1372.7805      1827.1877      1.0087699      0              1827.1877    
     34600   310.75408      1417.612       1886.8708      1.0087699      0              1886.8708    
     34700   303.20147      1383.1649      1841.0121      1.0087699      0              1841.0121    
     34800   294.56193      1343.761       1788.5535      1.0087699      0              1788.5535    
     34900   297.98967      1359.3951      1809.3665      1.0087699      0              1809.3665    
     35000   303.76864      1385.7523      1844.4559      1.0087699      0              1844.4559    
     35100   302.56231      1380.2512      1837.1312      1.0087699      0              1837.1312    
     35200   287.42546      1311.2115      1745.2216      1.0087699      0              1745.2216    
     35300   292.36435      1333.7389      1775.2101      1.0087699      0              1775.2101    
     35400   301.8463       1376.9851      1832.7836      1.0087699      0              1832.7836    
     35500   302.77871      1381.2373      1838.4451      1.0087699      0              1838.4451    
     35600   297.91553      1359.057       1808.9163      1.0087699      0              1808.9163    
     35700   291.73631      1330.8741      1771.3967      1.0087699      0              1771.3967    
     35800   297.16346      1355.6265      1804.3498      1.0087699      0              1804.3498    
     35900   308.12082      1405.6021      1870.8819      1.0087699      0              1870.8819    
     36000   302.55986      1380.2389      1837.1163      1.0087699      0              1837.1163    
     36100   295.00433      1345.7788      1791.2397      1.0087699      0              1791.2397    
     36200   297.32094      1356.3451      1805.306       1.0087699      0              1805.306     
     36300   301.72527      1376.4329      1832.0487      1.0087699      0              1832.0487    
     36400   301.45231      1375.1876      1830.3913      1.0087699      0              1830.3913    
     36500   299.76123      1367.4748      1820.1233      1.0087699      0              1820.1233    
     36600   298.62584      1362.2965      1813.2293      1.0087699      0              1813.2293    
     36700   300.36173      1370.2133      1823.7694      1.0087699      0              1823.7694    
     36800   305.9551       1395.7244      1857.7319      1.0087699      0              1857.7319    
     36900   302.97726      1382.143       1839.6507      1.0087699      0              1839.6507    
     37000   293.22988      1337.6855      1780.4654      1.0087699      0              1780.4654    
     37100   295.63798      1348.6689      1795.0872      1.0087699      0              1795.0872    
     37200   306.86566      1399.8779      1863.2607      1.0087699      0              1863.2607    
     37300   305.34944      1392.9614      1854.0543      1.0087699      0              1854.0543    
     37400   300.38047      1370.2989      1823.8832      1.0087699      0              1823.8832    
     37500   297.20424      1355.8126      1804.5974      1.0087699      0              1804.5974    
     37600   299.2727       1365.2462      1817.1569      1.0087699      0              1817.1569    
     37700   309.35873      1411.2478      1878.3984      1.0087699      0              1878.3984    
     37800   307.44187      1402.5058      1866.7594      1.0087699      0              1866.7594    
     37900   294.44711      1343.237       1787.8564      1.0087699      0              1787.8564    
     38000   296.6619       1353.3392      1801.3044      1.0087699      0              1801.3044    
     38100   303.2974       1383.6031      1841.5945      1.0087699      0              1841.5945    
     38200   303.9849       1386.7389      1845.769       1.0087699      0              1845.769     
     38300   290.6997       1326.1452      1765.1024      1.0087699      0              1765.1024    
     38400   289.5029       1320.6876      1757.8355      1.0087699      0              1757.8355    
     38500   299.17414      1364.7979      1816.5585      1.0087699      0              1816.5585    
     38600   302.17949      1378.5043      1834.8067      1.0087699      0              1834.8067    
     38700   300.58925      1371.2515      1825.1509      1.0087699      0              1825.1509    
     38800   294.96603      1345.6047      1791.0072      1.0087699      0              1791.0072    
     38900   292.04974      1332.3029      1773.2997      1.0087699      0              1773.2997    
     39000   304.04711      1387.0231      1846.1467      1.0087699      0              1846.1467    
     39100   307.093        1400.9141      1864.6411      1.0087699      0              1864.6411    
     39200   298.32381      1360.9185      1811.3954      1.0087699      0              1811.3954    
     39300   295.46186      1347.8658      1794.0179      1.0087699      0              1794.0179    
     39400   299.03846      1364.1788      1815.7346      1.0087699      0              1815.7346    
     39500   300.89403      1372.6415      1827.0015      1.0087699      0              1827.0015    
     39600   300.48618      1370.7813      1824.5251      1.0087699      0              1824.5251    
     39700   299.06863      1364.3161      1815.9178      1.0087699      0              1815.9178    
     39800   296.32858      1351.8189      1799.2805      1.0087699      0              1799.2805    
     39900   296.97614      1354.7723      1803.2124      1.0087699      0              1803.2124    
SHAKE stats (type/ave/delta/count) on step 40000
Bond:   1   1         3.23148e-07     2038
Angle:  1   109.47    3.77525e-05     1019
     40000   304.22428      1387.8304      1847.2225      1.0087699      0              1847.2225    
     40100   305.37588      1393.0828      1854.2149      1.0087699      0              1854.2149    
     40200   294.72061      1344.4846      1789.517       1.0087699      0              1789.517     
     40300   292.42023      1333.9931      1775.5493      1.0087699      0              1775.5493    
     40400   302.34873      1379.2769      1835.8343      1.0087699      0              1835.8343    
     40500   303.62492      1385.0965      1843.5832      1.0087699      0              1843.5832    
     40600   299.65961      1367.0113      1819.5062      1.0087699      0              1819.5062    
     40700   296.35537      1351.941       1799.4432      1.0087699      0              1799.4432    
     40800   299.82655      1367.7722      1820.5199      1.0087699      0              1820.5199    
     40900   310.18615      1415.0217      1883.4224      1.0087699      0              1883.4224    
     41000   303.9424       1386.5447      1845.5109      1.0087699      0              1845.5109    
     41100   294.05463      1341.4473      1785.4733      1.0087699      0              1785.4733    
     41200   297.71477      1358.1414      1807.6973      1.0087699      0              1807.6973    
     41300   303.46428      1384.3642      1842.6078      1.0087699      0              1842.6078    
     41400   302.83411      1381.4903      1838.7815      1.0087699      0              1838.7815    
     41500   289.44573      1320.4259      1757.4885      1.0087699      0              1757.4885    
     41600   290.40888      1324.8198      1763.3366      1.0087699      0              1763.3366    
     41700   300.31315      1369.9928      1823.4744      1.0087699      0              1823.4744    
     41800   302.07027      1378.0062      1834.1435      1.0087699      0              1834.1435    
     41900   299.61097      1366.7896      1819.2108      1.0087699      0              1819.2108    
     42000   294.95744      1345.5654      1790.955       1.0087699      0              1790.955     
     42100   295.45328      1347.8261      1793.9657      1.0087699      0              1793.9657    
     42200   306.66904      1398.9811      1862.0669      1.0087699      0              1862.0669    
     42300   306.06411      1396.2216      1858.3938      1.0087699      0              1858.3938    
     42400   295.41701      1347.6606      1793.7455      1.0087699      0              1793.7455    
     42500   295.4933       1348.0095      1794.2088      1.0087699      0              1794.2088    
     42600   299.85812      1367.917       1820.7115      1.0087699      0              1820.7115    
     42700   301.79043      1376.7299      1832.4444      1.0087699      0              1832.4444    
     42800   300.09691      1369.0061      1822.1614      1.0087699      0              1822.1614    
     42900   291.32033      1328.9768      1768.8708      1.0087699      0              1768.8708    
     43000   288.8055       1317.5062      1753.601       1.0087699      0              1753.601     
     43100   302.41098      1379.5611      1836.2123      1.0087699      0              1836.2123    
     43200   304.05289      1387.0487      1846.1818      1.0087699      0              1846.1818    
     43300   298.13526      1360.0589      1810.2505      1.0087699      0              1810.2505    
     43400   293.71472      1339.8971      1783.4094      1.0087699      0              1783.4094    
     43500   303.13819      1382.8768      1840.6278      1.0087699      0              1840.6278    
     43600   310.51702      1416.5305      1885.4314      1.0087699      0              1885.4314    
     43700   300.398        1370.3782      1823.9896      1.0087699      0              1823.9896    
     43800   296.28715      1351.6297      1799.0289      1.0087699      0              1799.0289    
     43900   299.43618      1365.9923      1818.1495      1.0087699      0              1818.1495    
     44000   304.12789      1387.3905      1846.6372      1.0087699      0              1846.6372    
     44100   305.03312      1391.5198      1852.1337      1.0087699      0              1852.1337    
     44200   295.25486      1346.9213      1792.7609      1.0087699      0              1792.7609    
     44300   293.10053      1337.0957      1779.6801      1.0087699      0              1779.6801    
     44400   303.34681      1383.8288      1841.8946      1.0087699      0              1841.8946    
     44500   306.09227      1396.35        1858.5648      1.0087699      0              1858.5648    
     44600   298.71437      1362.6998      1813.7668      1.0087699      0              1813.7668    
     44700   295.90181      1349.8725      1796.6892      1.0087699      0              1796.6892    
     44800   298.41022      1361.3133      1811.92        1.0087699      0              1811.92      
     44900   301.2351       1374.197       1829.0724      1.0087699      0              1829.0724    
     45000   302.05286      1377.9268      1834.0378      1.0087699      0              1834.0378    
     45100   296.96498      1354.7218      1803.1447      1.0087699      0              1803.1447    
     45200   290.84175      1326.7937      1765.9649      1.0087699      0              1765.9649    
     45300   300.44085      1370.5752      1824.2498      1.0087699      0              1824.2498    
     45400   307.06502      1400.7865      1864.4712      1.0087699      0              1864.4712    
     45500   301.03795      1373.2975      1827.8753      1.0087699      0              1827.8753    
     45600   296.6005       1353.0588      1800.9315      1.0087699      0              1800.9315    
     45700   298.54026      1361.9063      1812.7096      1.0087699      0              1812.7096    
     45800   300.82206      1372.3134      1826.5645      1.0087699      0              1826.5645    
     45900   300.61122      1371.3515      1825.2843      1.0087699      0              1825.2843    
     46000   299.71335      1367.2565      1819.8325      1.0087699      0              1819.8325    
     46100   299.17111      1364.7833      1816.54        1.0087699      0              1816.54      
     46200   300.47562      1370.7329      1824.4609      1.0087699      0              1824.4609    
     46300   303.11795      1382.7845      1840.5049      1.0087699      0              1840.5049    
     46400   300.81503      1372.2812      1826.5218      1.0087699      0              1826.5218    
     46500   294.63292      1344.085       1788.9846      1.0087699      0              1788.9846    
     46600   295.96341      1350.1528      1797.0632      1.0087699      0              1797.0632    
     46700   308.32211      1406.5205      1872.1041      1.0087699      0              1872.1041    
     46800   305.9621       1395.756       1857.7743      1.0087699      0              1857.7743    
     46900   297.77126      1358.3983      1808.0403      1.0087699      0              1808.0403    
     47000   297.98274      1359.3634      1809.3244      1.0087699      0              1809.3244    
     47100   301.06306      1373.4124      1828.0278      1.0087699      0              1828.0278    
     47200   303.16857      1383.0154      1840.8123      1.0087699      0              1840.8123    
     47300   298.63406      1362.3342      1813.2791      1.0087699      0              1813.2791    
     47400   291.63705      1330.421       1770.794       1.0087699      0              1770.794     
     47500   298.8853       1363.48        1814.8047      1.0087699      0              1814.8047    
     47600   306.92267      1400.1375      1863.6069      1.0087699      0              1863.6069    
     47700   302.06774      1377.9942      1834.1281      1.0087699      0              1834.1281    
     47800   297.23805      1355.9666      1804.8027      1.0087699      0              1804.8027    
     47900   298.36376      1361.1013      1811.6379      1.0087699      0              1811.6379    
     48000   300.46443      1370.6821      1824.393       1.0087699      0              1824.393     
     48100   301.09982      1373.58        1828.251       1.0087699      0              1828.251     
     48200   298.36008      1361.0849      1811.6156      1.0087699      0              1811.6156    
     48300   290.87894      1326.9632      1766.1908      1.0087699      0              1766.1908    
     48400   296.91082      1354.4746      1802.8158      1.0087699      0              1802.8158    
     48500   306.30674      1397.3284      1859.867       1.0087699      0              1859.867     
     48600   302.57889      1380.3258      1837.2318      1.0087699      0              1837.2318    
     48700   294.95656      1345.5609      1790.9497      1.0087699      0              1790.9497    
     48800   296.71312      1353.5722      1801.6154      1.0087699      0              1801.6154    
     48900   314.45835      1434.5082      1909.3628      1.0087699      0              1909.3628    
     49000   310.75039      1417.5939      1886.8484      1.0087699      0              1886.8484    
     49100   299.70914      1367.2367      1819.807       1.0087699      0              1819.807     
     49200   295.17876      1346.5744      1792.2989      1.0087699      0              1792.2989    
     49300   299.83996      1367.8338      1820.6013      1.0087699      0              1820.6013    
     49400   307.93602      1404.7591      1869.7598      1.0087699      0              1869.7598    
     49500   301.68798      1376.2634      1831.8223      1.0087699      0              1831.8223    
     49600   290.16906      1323.7255      1761.8805      1.0087699      0              1761.8805    
     49700   296.95458      1354.6746      1803.0815      1.0087699      0              1803.0815    
     49800   303.49757      1384.5161      1842.81        1.0087699      0              1842.81      
     49900   302.14037      1378.3259      1834.5691      1.0087699      0              1834.5691    
SHAKE stats (type/ave/delta/count) on step 50000
Bond:   1   1         4.59709e-07     2038
Angle:  1   109.47    5.02343e-05     1019
     50000   294.69336      1344.3613      1789.3516      1.0087699      0              1789.3516    
     50100   285.64148      1303.0754      1734.3894      1.0087699      0              1734.3894    
     50200   296.73718      1353.6842      1801.7615      1.0087699      0              1801.7615    
     50300   305.25164      1392.5161      1853.4605      1.0087699      0              1853.4605    
     50400   301.25445      1374.2853      1829.1899      1.0087699      0              1829.1899    
     50500   294.24351      1342.3089      1786.6201      1.0087699      0              1786.6201    
     50600   297.07676      1355.2306      1803.8234      1.0087699      0              1803.8234    
     50700   310.27632      1415.4333      1883.9699      1.0087699      0              1883.9699    
     50800   305.93584      1395.6357      1857.6149      1.0087699      0              1857.6149    
     50900   299.56129      1366.5626      1818.9092      1.0087699      0              1818.9092    
     51000   298.25733      1360.6157      1810.9917      1.0087699      0              1810.9917    
     51100   300.53889      1371.0215      1824.8451      1.0087699      0              1824.8451    
     51200   306.56891      1398.5236      1861.4588      1.0087699      0              1861.4588    
     51300   306.86619      1399.8801      1863.2639      1.0087699      0              1863.2639    
     51400   294.38384      1342.9484      1787.4722      1.0087699      0              1787.4722    
     51500   294.4017       1343.0305      1787.5806      1.0087699      0              1787.5806    
     51600   303.15484      1382.9532      1840.7289      1.0087699      0              1840.7289    
     51700   304.39882      1388.6262      1848.2822      1.0087699      0              1848.2822    
     51800   300.6095       1371.3435      1825.2739      1.0087699      0              1825.2739    
     51900   299.29465      1365.3467      1817.2902      1.0087699      0              1817.2902    
     52000   299.67638      1367.0878      1819.608       1.0087699      0              1819.608     
     52100   301.4904       1375.3612      1830.6226      1.0087699      0              1830.6226    
     52200   304.45134      1388.8659      1848.6012      1.0087699      0              1848.6012    
     52300   300.77322      1372.0905      1826.2679      1.0087699      0              1826.2679    
     52400   293.58316      1339.297       1782.6105      1.0087699      0              1782.6105    
     52500   297.10728      1355.3701      1804.0087      1.0087699      0              1804.0087    
     52600   308.52102      1407.4275      1873.3119      1.0087699      0              1873.3119    
     52700   304.73296      1390.1498      1850.3111      1.0087699      0              1850.3111    
     52800   299.1093       1364.5012      1816.1648      1.0087699      0              1816.1648    
     52900   298.82415      1363.201       1814.4334      1.0087699      0              1814.4334    
     53000   300.79037      1372.1683      1826.372       1.0087699      0              1826.372     
     53100   303.65938      1385.2537      1843.7925      1.0087699      0              1843.7925    
     53200   302.72153      1380.9766      1838.0979      1.0087699      0              1838.0979    
     53300   294.75767      1344.6539      1789.7421      1.0087699      0              1789.7421    
     53400   294.43264      1343.1713      1787.7685      1.0087699      0              1787.7685    
     53500   305.97605      1395.8204      1857.8591      1.0087699      0              1857.8591    
     53600   306.51663      1398.2852      1861.1414      1.0087699      0              1861.1414    
     53700   299.4757       1366.172       1818.3895      1.0087699      0              1818.3895    
     53800   298.47048      1361.5878      1812.2859      1.0087699      0              1812.2859    
     53900   300.23906      1369.6542      1823.0245      1.0087699      0              1823.0245    
     54000   302.45507      1379.761       1836.48        1.0087699      0              1836.48      
     54100   301.92083      1377.3248      1833.2362      1.0087699      0              1833.2362    
     54200   295.48797      1347.9848      1794.1764      1.0087699      0              1794.1764    
     54300   294.72015      1344.4827      1789.5142      1.0087699      0              1789.5142    
     54400   305.1212       1391.9214      1852.6685      1.0087699      0              1852.6685    
     54500   306.98304      1400.4127      1863.9734      1.0087699      0              1863.9734    
     54600   296.29325      1351.657       1799.066       1.0087699      0              1799.066     
     54700   294.77696      1344.7424      1789.8592      1.0087699      0              1789.8592    
     54800   299.28787      1365.3161      1817.2491      1.0087699      0              1817.2491    
     54900   303.39009      1384.0256      1842.1574      1.0087699      0              1842.1574    
     55000   301.42671      1375.0714      1830.2359      1.0087699      0              1830.2359    
     55100   290.64684      1325.9046      1764.7815      1.0087699      0              1764.7815    
     55200   292.5315       1334.5002      1776.2249      1.0087699      0              1776.2249    
     55300   305.21074      1392.33        1853.2121      1.0087699      0              1853.2121    
     55400   303.0343       1382.4028      1839.997       1.0087699      0              1839.997     
     55500   296.86597      1354.2697      1802.5435      1.0087699      0              1802.5435    
     55600   295.92224      1349.9653      1796.8132      1.0087699      0              1796.8132    
     55700   308.16737      1405.8146      1871.1645      1.0087699      0              1871.1645    
     55800   310.16795      1414.9384      1883.3119      1.0087699      0              1883.3119    
     55900   299.52036      1366.3755      1818.6607      1.0087699      0              1818.6607    
     56000   297.84809      1358.7492      1808.5068      1.0087699      0              1808.5068    
     56100   300.46461      1370.6828      1824.3941      1.0087699      0              1824.3941    
     56200   304.50171      1389.0955      1848.907       1.0087699      0              1848.907     
     56300   303.36416      1383.9078      1841.9999      1.0087699      0              1841.9999    
     56400   293.18003      1337.4582      1780.1628      1.0087699      0              1780.1628    
     56500   294.23396      1342.2653      1786.5622      1.0087699      0              1786.5622    
     56600   305.50756      1393.6839      1855.0145      1.0087699      0              1855.0145    
     56700   304.79244      1390.4212      1850.6723      1.0087699      0              1850.6723    
     56800   299.74568      1367.4037      1820.0288      1.0087699      0              1820.0288    
     56900   298.27945      1360.7167      1811.126       1.0087699      0              1811.126     
     57000   300.04442      1368.7664      1821.8427      1.0087699      0              1821.8427    
     57100   305.41406      1393.2558      1854.4467      1.0087699      0              1854.4467    
     57200   311.73151      1422.0699      1892.8057      1.0087699      0              1892.8057    
     57300   299.3648       1365.6656      1817.7161      1.0087699      0              1817.7161    
     57400   294.31777      1342.6476      1787.071       1.0087699      0              1787.071     
     57500   300.21139      1369.5281      1822.8566      1.0087699      0              1822.8566    
     57600   306.50157      1398.2168      1861.05        1.0087699      0              1861.05      
     57700   298.74295      1362.8317      1813.9403      1.0087699      0              1813.9403    
     57800   288.0044       1313.8526      1748.7368      1.0087699      0              1748.7368    
     57900   296.8949       1354.4026      1802.7191      1.0087699      0              1802.7191    
     58000   303.21092      1383.2087      1841.0694      1.0087699      0              1841.0694    
     58100   301.9471       1377.4444      1833.3956      1.0087699      0              1833.3956    
     58200   294.70486      1344.4136      1789.4214      1.0087699      0              1789.4214    
     58300   288.74302      1317.2213      1753.2217      1.0087699      0              1753.2217    
     58400   301.64937      1376.088       1831.5879      1.0087699      0              1831.5879    
     58500   306.83096      1399.719       1863.05        1.0087699      0              1863.05      
     58600   299.08846      1364.4061      1816.0382      1.0087699      0              1816.0382    
     58700   294.1458       1341.8632      1786.0268      1.0087699      0              1786.0268    
     58800   300.8364       1372.3781      1826.6516      1.0087699      0              1826.6516    
     58900   312.63255      1426.1795      1898.2767      1.0087699      0              1898.2767    
     59000   303.07413      1382.5834      1840.2389      1.0087699      0              1840.2389    
     59100   297.64849      1357.8388      1807.2948      1.0087699      0              1807.2948    
     59200   299.85818      1367.9171      1820.7119      1.0087699      0              1820.7119    
     59300   303.00715      1382.2792      1839.8322      1.0087699      0              1839.8322    
     59400   301.29204      1374.4569      1829.4181      1.0087699      0              1829.4181    
     59500   294.46599      1343.3237      1787.971       1.0087699      0              1787.971     
     59600   294.30196      1342.575       1786.975       1.0087699      0              1786.975     
     59700   307.61265      1403.2849      1867.7963      1.0087699      0              1867.7963    
     59800   306.37222      1397.6265      1860.2645      1.0087699      0              1860.2645    
     59900   298.37941      1361.172       1811.7329      1.0087699      0              1811.7329    
SHAKE stats (type/ave/delta/count) on step 60000
Bond:   1   1         1.09761e-07     2038
Angle:  1   109.47    1.1775e-05      1019
     60000   297.61391      1357.6812      1807.0849      1.0087699      0              1807.0849    
     60100   300.46481      1370.6839      1824.3953      1.0087699      0              1824.3953    
     60200   302.73613      1381.043       1838.1866      1.0087699      0              1838.1866    
     60300   300.25391      1369.7221      1823.1147      1.0087699      0              1823.1147    
     60400   293.53609      1339.0824      1782.3247      1.0087699      0              1782.3247    
     60500   297.19825      1355.7853      1804.561       1.0087699      0              1804.561     
     60600   306.51321      1398.2701      1861.1206      1.0087699      0              1861.1206    
     60700   303.65517      1385.2348      1843.7669      1.0087699      0              1843.7669    
     60800   292.80959      1335.7685      1777.9135      1.0087699      0              1777.9135    
     60900   294.31821      1342.6503      1787.0737      1.0087699      0              1787.0737    
     61000   298.72767      1362.7611      1813.8475      1.0087699      0              1813.8475    
     61100   302.00578      1377.712       1833.7519      1.0087699      0              1833.7519    
     61200   301.89735      1377.2176      1833.0935      1.0087699      0              1833.0935    
     61300   295.22966      1346.807       1792.6079      1.0087699      0              1792.6079    
     61400   290.88162      1326.9753      1766.207       1.0087699      0              1766.207     
     61500   303.5251       1384.6426      1842.9771      1.0087699      0              1842.9771    
     61600   306.71002      1399.1673      1862.3157      1.0087699      0              1862.3157    
     61700   299.40668      1365.8574      1817.9705      1.0087699      0              1817.9705    
     61800   296.21199      1351.287       1798.5726      1.0087699      0              1798.5726    
     61900   299.67323      1367.0736      1819.5889      1.0087699      0              1819.5889    
     62000   304.79595      1390.4369      1850.6936      1.0087699      0              1850.6936    
     62100   313.73479      1431.2063      1904.9694      1.0087699      0              1904.9694    
     62200   304.65567      1389.7968      1849.8418      1.0087699      0              1849.8418    
     62300   294.62685      1344.0571      1788.9477      1.0087699      0              1788.9477    
     62400   297.02161      1354.9795      1803.4885      1.0087699      0              1803.4885    
     62500   305.58772      1394.049       1855.5011      1.0087699      0              1855.5011    
     62600   304.6267       1389.6662      1849.6659      1.0087699      0              1849.6659    
     62700   290.52309      1325.3395      1764.0301      1.0087699      0              1764.0301    
     62800   292.44614      1334.112       1775.7067      1.0087699      0              1775.7067    
     62900   299.54736      1366.4998      1818.8246      1.0087699      0              1818.8246    
     63000   302.98393      1382.1732      1839.6912      1.0087699      0              1839.6912    
     63100   300.4923       1370.8095      1824.5622      1.0087699      0              1824.5622    
     63200   290.89382      1327.0314      1766.2811      1.0087699      0              1766.2811    
     63300   290.82394      1326.7116      1765.8568      1.0087699      0              1765.8568    
     63400   305.42126      1393.2904      1854.4905      1.0087699      0              1854.4905    
     63500   303.70314      1385.4534      1844.0582      1.0087699      0              1844.0582    
     63600   296.36556      1351.9873      1799.505       1.0087699      0              1799.505     
     63700   295.41037      1347.6307      1793.7052      1.0087699      0              1793.7052    
     63800   308.49269      1407.2985      1873.1399      1.0087699      0              1873.1399    
     63900   310.21297      1415.1435      1883.5853      1.0087699      0              1883.5853    
     64000   301.25848      1374.303       1829.2144      1.0087699      0              1829.2144    
     64100   298.14297      1360.0941      1810.2973      1.0087699      0              1810.2973    
     64200   298.98244      1363.9227      1815.3945      1.0087699      0              1815.3945    
     64300   304.34377      1388.3749      1847.948       1.0087699      0              1847.948     
     64400   308.45638      1407.1325      1872.9194      1.0087699      0              1872.9194    
     64500   297.02018      1354.9723      1803.4798      1.0087699      0              1803.4798    
     64600   292.70554      1335.2943      1777.2817      1.0087699      0              1777.2817    
     64700   300.64763      1371.5181      1825.5054      1.0087699      0              1825.5054    
     64800   304.47486      1388.9732      1848.744       1.0087699      0              1848.744     
     64900   301.28069      1374.4046      1829.3493      1.0087699      0              1829.3493    
     65000   299.20898      1364.956       1816.77        1.0087699      0              1816.77      
     65100   299.38727      1365.7693      1817.8526      1.0087699      0              1817.8526    
     65200   300.83425      1372.3686      1826.6385      1.0087699      0              1826.6385    
     65300   304.52605      1389.2064      1849.0548      1.0087699      0              1849.0548    
     65400   304.45335      1388.8752      1848.6133      1.0087699      0              1848.6133    
     65500   295.66295      1348.7828      1795.2389      1.0087699      0              1795.2389    
     65600   294.02761      1341.3242      1785.3092      1.0087699      0              1785.3092    
     65700   304.73632      1390.1662      1850.3315      1.0087699      0              1850.3315    
     65800   307.38087      1402.227       1866.389       1.0087699      0              1866.389     
     65900   300.3365       1370.0979      1823.6162      1.0087699      0              1823.6162    
     66000   298.81176      1363.1444      1814.3581      1.0087699      0              1814.3581    
     66100   299.95126      1368.3414      1821.2771      1.0087699      0              1821.2771    
     66200   302.0277       1377.8119      1833.8851      1.0087699      0              1833.8851    
     66300   302.24381      1378.7977      1835.1972      1.0087699      0              1835.1972    
     66400   296.53598      1352.7648      1800.5398      1.0087699      0              1800.5398    
     66500   293.93771      1340.9141      1784.7634      1.0087699      0              1784.7634    
     66600   303.59331      1384.9528      1843.3913      1.0087699      0              1843.3913    
     66700   308.07527      1405.3942      1870.6053      1.0087699      0              1870.6053    
     66800   298.49379      1361.6935      1812.4274      1.0087699      0              1812.4274    
     66900   295.56234      1348.3242      1794.6279      1.0087699      0              1794.6279    
     67000   299.19155      1364.8768      1816.6642      1.0087699      0              1816.6642    
     67100   302.99461      1382.222       1839.756       1.0087699      0              1839.756     
     67200   301.66779      1376.1709      1831.6997      1.0087699      0              1831.6997    
     67300   291.07518      1327.8583      1767.3823      1.0087699      0              1767.3823    
     67400   292.2052       1333.012       1774.2437      1.0087699      0              1774.2437    
     67500   304.65593      1389.7997      1849.8434      1.0087699      0              1849.8434    
     67600   303.33701      1383.7835      1841.8351      1.0087699      0              1841.8351    
     67700   297.51521      1357.2308      1806.4856      1.0087699      0              1806.4856    
     67800   295.86336      1349.697       1796.4557      1.0087699      0              1796.4557    
     67900   307.39484      1402.2912      1866.4738      1.0087699      0              1866.4738    
     68000   310.90396      1418.2952      1887.7809      1.0087699      0              1887.7809    
     68100   299.44994      1366.0543      1818.2331      1.0087699      0              1818.2331    
     68200   297.246        1356.0031      1804.851       1.0087699      0              1804.851     
     68300   300.43618      1370.5531      1824.2214      1.0087699      0              1824.2214    
     68400   305.24548      1392.4876      1853.4231      1.0087699      0              1853.4231    
     68500   304.28216      1388.0948      1847.5739      1.0087699      0              1847.5739    
     68600   293.0548       1336.8869      1779.4024      1.0087699      0              1779.4024    
     68700   294.29139      1342.5273      1786.9109      1.0087699      0              1786.9109    
     68800   304.85194      1390.6936      1851.0336      1.0087699      0              1851.0336    
     68900   304.44397      1388.832       1848.5564      1.0087699      0              1848.5564    
     69000   299.66789      1367.0488      1819.5565      1.0087699      0              1819.5565    
     69100   298.50163      1361.7299      1812.475       1.0087699      0              1812.475     
     69200   299.92407      1368.2176      1821.112       1.0087699      0              1821.112     
     69300   301.68919      1376.2679      1831.8296      1.0087699      0              1831.8296    
     69400   303.40984      1384.1158      1842.2772      1.0087699      0              1842.2772    
     69500   300.1713       1369.3452      1822.6131      1.0087699      0              1822.6131    
     69600   295.21095      1346.7213      1792.4943      1.0087699      0              1792.4943    
     69700   298.13208      1360.0442      1810.2312      1.0087699      0              1810.2312    
     69800   307.19056      1401.3593      1865.2335      1.0087699      0              1865.2335    
     69900   304.34333      1388.3739      1847.9453      1.0087699      0              1847.9453    
SHAKE stats (type/ave/delta/count) on step 70000
Bond:   1   1         1.49343e-07     2038
Angle:  1   109.47    1.67185e-05     1019
     70000   291.07178      1327.8422      1767.3617      1.0087699      0              1767.3617    
     70100   294.81522      1344.9171      1790.0915      1.0087699      0              1790.0915    
     70200   301.61131      1375.9131      1831.3568      1.0087699      0              1831.3568    
     70300   303.08836      1382.6496      1840.3252      1.0087699      0              1840.3252    
     70400   297.33345      1356.4027      1805.382       1.0087699      0              1805.382     
     70500   286.49464      1306.9665      1739.5697      1.0087699      0              1739.5697    
     70600   296.084        1350.7045      1797.7954      1.0087699      0              1797.7954    
     70700   304.69544      1389.9793      1850.0833      1.0087699      0              1850.0833    
     70800   300.8343       1372.369       1826.6388      1.0087699      0              1826.6388    
     70900   294.87182      1345.1746      1790.4352      1.0087699      0              1790.4352    
     71000   297.45063      1356.9359      1806.0935      1.0087699      0              1806.0935    
     71100   310.02991      1414.3094      1882.4737      1.0087699      0              1882.4737    
     71200   305.7171       1394.6384      1856.2867      1.0087699      0              1856.2867    
     71300   298.15543      1360.1507      1810.373       1.0087699      0              1810.373     
     71400   298.54835      1361.943       1812.7587      1.0087699      0              1812.7587    
     71500   301.58493      1375.7926      1831.1966      1.0087699      0              1831.1966    
     71600   303.84422      1386.0969      1844.9148      1.0087699      0              1844.9148    
     71700   298.62588      1362.2968      1813.2295      1.0087699      0              1813.2295    
     71800   291.78195      1331.0818      1771.6737      1.0087699      0              1771.6737    
     71900   299.34377      1365.5712      1817.5885      1.0087699      0              1817.5885    
     72000   307.28781      1401.8027      1865.824       1.0087699      0              1865.824     
     72100   302.3009       1379.0576      1835.5439      1.0087699      0              1835.5439    
     72200   298.19201      1360.3176      1810.5951      1.0087699      0              1810.5951    
     72300   298.82303      1363.1959      1814.4266      1.0087699      0              1814.4266    
     72400   300.91361      1372.7307      1827.1204      1.0087699      0              1827.1204    
     72500   301.92187      1377.3293      1833.2424      1.0087699      0              1833.2424    
     72600   298.70538      1362.6593      1813.7122      1.0087699      0              1813.7122    
     72700   295.27796      1347.027       1792.9012      1.0087699      0              1792.9012    
     72800   300.07566      1368.9089      1822.0324      1.0087699      0              1822.0324    
     72900   306.73926      1399.3009      1862.4932      1.0087699      0              1862.4932    
     73000   301.15271      1373.8217      1828.5722      1.0087699      0              1828.5722    
     73100   290.59685      1325.6764      1764.4779      1.0087699      0              1764.4779    
     73200   295.77647      1349.3014      1795.9281      1.0087699      0              1795.9281    
     73300   300.77419      1372.095       1826.2738      1.0087699      0              1826.2738    
     73400   301.36752      1374.801       1829.8765      1.0087699      0              1829.8765    
     73500   299.0392       1364.1819      1815.7391      1.0087699      0              1815.7391    
     73600   293.88773      1340.6865      1784.4598      1.0087699      0              1784.4598    
     73700   294.33071      1342.7065      1787.1496      1.0087699      0              1787.1496    
     73800   305.77686      1394.912       1856.6496      1.0087699      0              1856.6496    
     73900   305.60833      1394.1428      1855.6263      1.0087699      0              1855.6263    
     74000   295.93101      1350.005       1796.8665      1.0087699      0              1796.8665    
     74100   295.13546      1346.3774      1792.036       1.0087699      0              1792.036     
     74200   299.05154      1364.2383      1815.8141      1.0087699      0              1815.8141    
     74300   300.96379      1372.9596      1827.425       1.0087699      0              1827.425     
     74400   300.75649      1372.0142      1826.1664      1.0087699      0              1826.1664    
     74500   297.05946      1355.1527      1803.7183      1.0087699      0              1803.7183    
     74600   292.122        1332.6328      1773.7385      1.0087699      0              1773.7385    
     74700   300.05156      1368.7993      1821.8861      1.0087699      0              1821.8861    
     74800   307.43917      1402.4932      1866.743       1.0087699      0              1866.743     
     74900   300.91705      1372.7461      1827.1413      1.0087699      0              1827.1413    
     75000   294.61695      1344.012       1788.8876      1.0087699      0              1788.8876    
     75100   297.29594      1356.2313      1805.1542      1.0087699      0              1805.1542    
[...]
   1982000   296.90685      1354.4568      1802.7917      1.0087699      0              1802.7917    
   1982100   303.31538      1383.6858      1841.7037      1.0087699      0              1841.7037    
   1982200   302.40176      1379.5184      1836.1563      1.0087699      0              1836.1563    
   1982300   298.59303      1362.1472      1813.03        1.0087699      0              1813.03      
   1982400   296.61714      1353.1353      1801.0326      1.0087699      0              1801.0326    
   1982500   301.26624      1374.3393      1829.2615      1.0087699      0              1829.2615    
   1982600   307.55458      1403.02        1867.4438      1.0087699      0              1867.4438    
   1982700   300.27392      1369.8138      1823.2363      1.0087699      0              1823.2363    
   1982800   290.89673      1327.0448      1766.2988      1.0087699      0              1766.2988    
   1982900   297.37789      1356.6057      1805.6518      1.0087699      0              1805.6518    
   1983000   302.6209       1380.5181      1837.4869      1.0087699      0              1837.4869    
   1983100   301.42981      1375.0855      1830.2547      1.0087699      0              1830.2547    
   1983200   298.23046      1360.4936      1810.8285      1.0087699      0              1810.8285    
   1983300   296.16564      1351.0761      1798.2911      1.0087699      0              1798.2911    
   1983400   299.70968      1367.2401      1819.8102      1.0087699      0              1819.8102    
   1983500   305.91918      1395.5611      1857.5138      1.0087699      0              1857.5138    
   1983600   302.03326      1377.8379      1833.9188      1.0087699      0              1833.9188    
   1983700   293.14304      1337.29        1779.9382      1.0087699      0              1779.9382    
   1983800   296.43376      1352.2986      1799.9191      1.0087699      0              1799.9191    
   1983900   308.89231      1409.1215      1875.5663      1.0087699      0              1875.5663    
   1984000   305.87085      1395.3398      1857.2203      1.0087699      0              1857.2203    
   1984100   299.78243      1367.5717      1820.252       1.0087699      0              1820.252     
   1984200   296.63515      1353.2175      1801.142       1.0087699      0              1801.142     
   1984300   300.19062      1369.4332      1822.7305      1.0087699      0              1822.7305    
   1984400   310.81438      1417.8874      1887.237       1.0087699      0              1887.237     
   1984500   305.14906      1392.0488      1852.8376      1.0087699      0              1852.8376    
   1984600   293.97567      1341.0876      1784.9939      1.0087699      0              1784.9939    
   1984700   297.90775      1359.0219      1808.8691      1.0087699      0              1808.8691    
   1984800   304.44442      1388.8349      1848.5592      1.0087699      0              1848.5592    
   1984900   302.98308      1382.1704      1839.686       1.0087699      0              1839.686     
   1985000   289.33736      1319.9321      1756.8304      1.0087699      0              1756.8304    
   1985100   291.75004      1330.9374      1771.48        1.0087699      0              1771.48      
   1985200   299.80602      1367.68        1820.3952      1.0087699      0              1820.3952    
   1985300   301.76642      1376.6208      1832.2986      1.0087699      0              1832.2986    
   1985400   300.14752      1369.2372      1822.4687      1.0087699      0              1822.4687    
   1985500   295.35506      1347.3795      1793.3694      1.0087699      0              1793.3694    
   1985600   293.86863      1340.5993      1784.3439      1.0087699      0              1784.3439    
   1985700   304.88061      1390.8247      1851.2077      1.0087699      0              1851.2077    
   1985800   307.14088      1401.1331      1864.9318      1.0087699      0              1864.9318    
   1985900   297.10027      1355.3383      1803.9661      1.0087699      0              1803.9661    
   1986000   295.09046      1346.1725      1791.7628      1.0087699      0              1791.7628    
   1986100   299.00277      1364.0162      1815.5179      1.0087699      0              1815.5179    
   1986200   301.57493      1375.7474      1831.1358      1.0087699      0              1831.1358    
   1986300   300.8924       1372.6346      1826.9916      1.0087699      0              1826.9916    
   1986400   293.53085      1339.0595      1782.2929      1.0087699      0              1782.2929    
   1986500   288.76195      1317.308       1753.3366      1.0087699      0              1753.3366    
   1986600   301.84555      1376.9828      1832.7791      1.0087699      0              1832.7791    
   1986700   304.7941       1390.4296      1850.6824      1.0087699      0              1850.6824    
   1986800   298.96562      1363.8465      1815.2924      1.0087699      0              1815.2924    
   1986900   294.34694      1342.7811      1787.2482      1.0087699      0              1787.2482    
   1987000   302.61667      1380.4982      1837.4612      1.0087699      0              1837.4612    
   1987100   311.72498      1422.0404      1892.766       1.0087699      0              1892.766     
   1987200   301.2442       1374.238       1829.1277      1.0087699      0              1829.1277    
   1987300   296.46494      1352.4411      1800.1085      1.0087699      0              1800.1085    
   1987400   299.21007      1364.9616      1816.7766      1.0087699      0              1816.7766    
   1987500   305.07481      1391.7097      1852.3868      1.0087699      0              1852.3868    
   1987600   308.14326      1405.705       1871.0182      1.0087699      0              1871.0182    
   1987700   296.6361       1353.2211      1801.1477      1.0087699      0              1801.1477    
   1987800   292.64925      1335.038       1776.94        1.0087699      0              1776.94      
   1987900   301.7595       1376.5898      1832.2566      1.0087699      0              1832.2566    
   1988000   305.94904      1395.6972      1857.6951      1.0087699      0              1857.6951    
   1988100   300.34731      1370.148       1823.6819      1.0087699      0              1823.6819    
   1988200   297.56656      1357.4656      1806.7974      1.0087699      0              1806.7974    
   1988300   299.12124      1364.5565      1816.2373      1.0087699      0              1816.2373    
   1988400   301.2612       1374.3165      1829.2309      1.0087699      0              1829.2309    
   1988500   301.59967      1375.8605      1831.2861      1.0087699      0              1831.2861    
   1988600   296.23423      1351.3892      1798.7076      1.0087699      0              1798.7076    
   1988700   292.51592      1334.4299      1776.1304      1.0087699      0              1776.1304    
   1988800   302.4672       1379.8174      1836.5536      1.0087699      0              1836.5536    
   1988900   307.21453      1401.4689      1865.379       1.0087699      0              1865.379     
   1989000   299.6676       1367.0477      1819.5547      1.0087699      0              1819.5547    
   1989100   296.12027      1350.8692      1798.0157      1.0087699      0              1798.0157    
   1989200   298.59824      1362.1711      1813.0617      1.0087699      0              1813.0617    
   1989300   301.23994      1374.2196      1829.1018      1.0087699      0              1829.1018    
   1989400   301.53678      1375.5736      1830.9042      1.0087699      0              1830.9042    
   1989500   295.40455      1347.6052      1793.6698      1.0087699      0              1793.6698    
   1989600   290.31464      1324.3899      1762.7644      1.0087699      0              1762.7644    
   1989700   301.6929       1376.2864      1831.8522      1.0087699      0              1831.8522    
   1989800   305.97321      1395.8074      1857.8418      1.0087699      0              1857.8418    
   1989900   299.84273      1367.8467      1820.6181      1.0087699      0              1820.6181    
SHAKE stats (type/ave/delta/count) on step 1990000
Bond:   1   1         3.28414e-08     2038
Angle:  1   109.47    2.2067e-06      1019
   1990000   295.74745      1349.1687      1795.7519      1.0087699      0              1795.7519    
   1990100   300.05932      1368.834       1821.9332      1.0087699      0              1821.9332    
   1990200   317.35205      1447.7054      1926.9331      1.0087699      0              1926.9331    
   1990300   310.01779      1414.2526      1882.4001      1.0087699      0              1882.4001    
   1990400   300.21203      1369.5309      1822.8605      1.0087699      0              1822.8605    
   1990500   295.70828      1348.99        1795.5141      1.0087699      0              1795.5141    
   1990600   299.17509      1364.8017      1816.5643      1.0087699      0              1816.5643    
   1990700   307.5689       1403.0851      1867.5307      1.0087699      0              1867.5307    
   1990800   303.93567      1386.5154      1845.47        1.0087699      0              1845.47      
   1990900   290.73946      1326.3273      1765.3439      1.0087699      0              1765.3439    
   1991000   295.95654      1350.1229      1797.0215      1.0087699      0              1797.0215    
   1991100   303.07534      1382.5909      1840.2462      1.0087699      0              1840.2462    
   1991200   302.56529      1380.2643      1837.1492      1.0087699      0              1837.1492    
   1991300   296.50352      1352.6176      1800.3427      1.0087699      0              1800.3427    
   1991400   286.39683      1306.5213      1738.9758      1.0087699      0              1738.9758    
   1991500   290.57658      1325.5849      1764.3549      1.0087699      0              1764.3549    
   1991600   303.47547      1384.4159      1842.6757      1.0087699      0              1842.6757    
   1991700   303.25059      1383.39        1841.3103      1.0087699      0              1841.3103    
   1991800   296.41802      1352.2272      1799.8235      1.0087699      0              1799.8235    
   1991900   294.03464      1341.3566      1785.3519      1.0087699      0              1785.3519    
   1992000   306.20583      1396.869       1859.2542      1.0087699      0              1859.2542    
   1992100   309.07164      1409.9386      1876.6552      1.0087699      0              1876.6552    
   1992200   300.28826      1369.8784      1823.3233      1.0087699      0              1823.3233    
   1992300   297.91033      1359.0334      1808.8847      1.0087699      0              1808.8847    
   1992400   299.83024      1367.79        1820.5423      1.0087699      0              1820.5423    
   1992500   303.97612      1386.6985      1845.7157      1.0087699      0              1845.7157    
   1992600   307.22478      1401.5158      1865.4412      1.0087699      0              1865.4412    
   1992700   297.99346      1359.4122      1809.3895      1.0087699      0              1809.3895    
   1992800   292.56295      1334.6444      1776.4159      1.0087699      0              1776.4159    
   1992900   300.79505      1372.1908      1826.4005      1.0087699      0              1826.4005    
   1993000   306.62365      1398.774       1861.7912      1.0087699      0              1861.7912    
   1993100   302.01923      1377.7733      1833.8336      1.0087699      0              1833.8336    
   1993200   299.29963      1365.3699      1817.3205      1.0087699      0              1817.3205    
   1993300   299.2458       1365.1244      1816.9936      1.0087699      0              1816.9936    
   1993400   301.00085      1373.1288      1827.6501      1.0087699      0              1827.6501    
   1993500   304.80274      1390.4689      1850.7348      1.0087699      0              1850.7348    
   1993600   303.29743      1383.6037      1841.5947      1.0087699      0              1841.5947    
   1993700   294.22515      1342.2255      1786.5086      1.0087699      0              1786.5086    
   1993800   294.67568      1344.2803      1789.2443      1.0087699      0              1789.2443    
   1993900   306.55255      1398.4504      1861.3595      1.0087699      0              1861.3595    
   1994000   306.19433      1396.8155      1859.1844      1.0087699      0              1859.1844    
   1994100   300.58552      1371.2344      1825.1282      1.0087699      0              1825.1282    
   1994200   298.5894       1362.1306      1813.008       1.0087699      0              1813.008     
   1994300   299.54087      1366.4701      1818.7852      1.0087699      0              1818.7852    
   1994400   304.49706      1389.0744      1848.8788      1.0087699      0              1848.8788    
   1994500   308.81714      1408.7783      1875.1099      1.0087699      0              1875.1099    
   1994600   297.72063      1358.1675      1807.7329      1.0087699      0              1807.7329    
   1994700   293.19642      1337.5336      1780.2623      1.0087699      0              1780.2623    
   1994800   300.55733      1371.1065      1824.9571      1.0087699      0              1824.9571    
   1994900   305.07288      1391.7012      1852.3751      1.0087699      0              1852.3751    
   1995000   301.57912      1375.766       1831.1613      1.0087699      0              1831.1613    
   1995100   299.61237      1366.7963      1819.2193      1.0087699      0              1819.2193    
   1995200   299.48632      1366.2214      1818.454       1.0087699      0              1818.454     
   1995300   300.54847      1371.0657      1824.9033      1.0087699      0              1824.9033    
   1995400   302.72403      1380.9882      1838.1131      1.0087699      0              1838.1131    
   1995500   301.91467      1377.297       1833.1987      1.0087699      0              1833.1987    
   1995600   295.7987       1349.4025      1796.0631      1.0087699      0              1796.0631    
   1995700   294.83674      1345.0148      1790.2222      1.0087699      0              1790.2222    
   1995800   305.83828      1395.1925      1857.0225      1.0087699      0              1857.0225    
   1995900   307.74484      1403.8876      1868.599       1.0087699      0              1868.599     
   1996000   297.47688      1357.0556      1806.2529      1.0087699      0              1806.2529    
   1996100   296.62236      1353.1593      1801.0643      1.0087699      0              1801.0643    
   1996200   300.4571       1370.6491      1824.3485      1.0087699      0              1824.3485    
   1996300   303.47374      1384.4076      1842.6652      1.0087699      0              1842.6652    
   1996400   299.52751      1366.41        1818.7041      1.0087699      0              1818.7041    
   1996500   289.57029      1320.9949      1758.2448      1.0087699      0              1758.2448    
   1996600   296.51483      1352.6691      1800.4114      1.0087699      0              1800.4114    
   1996700   305.34992      1392.9648      1854.0572      1.0087699      0              1854.0572    
   1996800   301.91743      1377.3093      1833.2155      1.0087699      0              1833.2155    
   1996900   296.66567      1353.3567      1801.3273      1.0087699      0              1801.3273    
   1997000   297.33068      1356.3892      1805.3652      1.0087699      0              1805.3652    
   1997100   311.29066      1420.0603      1890.1289      1.0087699      0              1890.1289    
   1997200   308.26046      1406.2388      1871.7298      1.0087699      0              1871.7298    
   1997300   298.1063       1359.9267      1810.0747      1.0087699      0              1810.0747    
   1997400   297.57864      1357.5207      1806.8708      1.0087699      0              1806.8708    
   1997500   301.7969       1376.7597      1832.4837      1.0087699      0              1832.4837    
   1997600   306.56038      1398.4852      1861.4071      1.0087699      0              1861.4071    
   1997700   301.47917      1375.3109      1830.5544      1.0087699      0              1830.5544    
   1997800   291.65654      1330.5102      1770.9123      1.0087699      0              1770.9123    
   1997900   297.26258      1356.0794      1804.9517      1.0087699      0              1804.9517    
   1998000   305.59615      1394.0879      1855.5523      1.0087699      0              1855.5523    
   1998100   302.848        1381.5534      1838.8658      1.0087699      0              1838.8658    
   1998200   298.96172      1363.8286      1815.2687      1.0087699      0              1815.2687    
   1998300   298.75157      1362.8703      1813.9926      1.0087699      0              1813.9926    
   1998400   300.37204      1370.2611      1823.832       1.0087699      0              1823.832     
   1998500   301.65626      1376.1182      1831.6297      1.0087699      0              1831.6297    
   1998600   301.29468      1374.4693      1829.4342      1.0087699      0              1829.4342    
   1998700   297.82531      1358.6457      1808.3685      1.0087699      0              1808.3685    
   1998800   297.1598       1355.6103      1804.3276      1.0087699      0              1804.3276    
   1998900   302.55202      1380.2037      1837.0687      1.0087699      0              1837.0687    
   1999000   306.31848      1397.3822      1859.9383      1.0087699      0              1859.9383    
   1999100   296.94266      1354.6199      1803.0091      1.0087699      0              1803.0091    
   1999200   290.76035      1326.4228      1765.4707      1.0087699      0              1765.4707    
   1999300   299.31074      1365.4214      1817.3879      1.0087699      0              1817.3879    
   1999400   302.72934      1381.0125      1838.1453      1.0087699      0              1838.1453    
   1999500   300.47695      1370.7396      1824.469       1.0087699      0              1824.469     
   1999600   297.42803      1356.8339      1805.9563      1.0087699      0              1805.9563    
   1999700   297.70635      1358.1028      1807.6462      1.0087699      0              1807.6462    
   1999800   306.22208      1396.9426      1859.3529      1.0087699      0              1859.3529    
   1999900   306.56437      1398.5039      1861.4313      1.0087699      0              1861.4313    
SHAKE stats (type/ave/delta/count) on step 2000000
Bond:   1   1         3.90926e-07     2038
Angle:  1   109.47    3.85706e-05     1019
   2000000   294.98183      1345.6761      1791.1031      1.0087699      0              1791.1031    
Loop time of 314.77 on 10 procs for 2000000 steps with 3057 atoms

Performance: 548.972 ns/day, 0.044 hours/ns, 6353.843 timesteps/s, 19.424 Matom-step/s
95.4% CPU use with 10 MPI tasks x 1 OpenMP threads

MPI task timing breakdown:
Section |  min time  |  avg time  |  max time  |%varavg| %total
---------------------------------------------------------------
Pair    | 0          | 0          | 0          |   0.0 |  0.00
Bond    | 0.08275    | 0.088386   | 0.097105   |   1.4 |  0.03
Neigh   | 4.467      | 4.5378     | 4.6014     |   1.8 |  1.44
Comm    | 103.94     | 105.16     | 105.69     |   5.7 | 33.41
Output  | 18.044     | 19.628     | 21.152     |  22.5 |  6.24
Modify  | 152.19     | 152.76     | 154.03     |   5.3 | 48.53
Other   |            | 32.59      |            |       | 10.35

Nlocal:          305.7 ave         349 max         266 min
Histogram: 1 1 1 2 0 2 0 1 1 1
Nghost:          836.9 ave         923 max         722 min
Histogram: 1 1 0 1 0 2 1 1 1 2
Neighs:              0 ave           0 max           0 min
Histogram: 10 0 0 0 0 0 0 0 0 0

Total # of neighbors = 0
Ave neighs/atom = 0
Ave special neighs/atom = 2
Neighbor list builds = 95457
Dangerous builds = 0
Total wall time: 0:05:14
